 argument  1 = co2_cc-pVTZ_singlet_opt.nw
                                         
                                         
 
 
              Northwest Computational Chemistry Package (NWChem) 6.8
              ------------------------------------------------------
 
 
                    Environmental Molecular Sciences Laboratory
                       Pacific Northwest National Laboratory
                                Richland, WA 99352
 
                              Copyright (c) 1994-2017
                       Pacific Northwest National Laboratory
                            Battelle Memorial Institute
 
             NWChem is an open-source computational chemistry package
                        distributed under the terms of the
                      Educational Community License (ECL) 2.0
             A copy of the license is included with this distribution
                              in the LICENSE.TXT file
 
                                  ACKNOWLEDGMENT
                                  --------------

            This software and its documentation were developed at the
            EMSL at Pacific Northwest National Laboratory, a multiprogram
            national laboratory, operated for the U.S. Department of Energy
            by Battelle under Contract Number DE-AC05-76RL01830. Support
            for this work was provided by the Department of Energy Office
            of Biological and Environmental Research, Office of Basic
            Energy Sciences, and the Office of Advanced Scientific Computing.


           Job information
           ---------------

    hostname        = c10-23
    program         = /cluster/software/NWChem/6.8.1.revision133-intel-2018b-2018-06-14-Python-2.7.15/bin/nwchem
    date            = Tue Oct  5 19:13:00 2021

    compiled        = Fri Jun 28 19:15:06 CEST 2019
    source          = /tmp/eb-GqQehi/tmp4QO0VA-NWChem-6.8.1.revision133
    nwchem branch   = 6.8.1
    nwchem revision = v6.8-133-ge032219
    ga revision     = 5.7.0
    use scalapack   = T
    input           = co2_cc-pVTZ_singlet_opt.nw
    prefix          = co2_cc-pVTZ_singlet.
    data base       = ./co2_cc-pVTZ_singlet.db
    status          = startup
    nproc           =       20
    time left       =     -1s



           Memory information
           ------------------

    heap     =   78038112 doubles =    595.4 Mbytes
    stack    =   78038109 doubles =    595.4 Mbytes
    global   =  156076224 doubles =   1190.8 Mbytes (distinct from heap & stack)
    total    =  312152445 doubles =   2381.5 Mbytes
    verify   = yes
    hardfail = no 


           Directory information
           ---------------------
 
  0 permanent = .
  0 scratch   = .
 
 
 
 
                                NWChem Input Module
                                -------------------
 
 
                              co2_cc-pVTZ_singlet_opt
                              -----------------------

 Scaling coordinates for geometry "start" by  1.889725989
 (inverse scale =  0.529177249)

 ORDER OF PRIMARY AXIS IS BEING SET TO 4
 D4H symmetry detected

          ------
          auto-z
          ------
  autoz: insufficient variables                      2                     3
     1 autoz failed with cvr_scaling = 1.2 changing to 1.3
  autoz: insufficient variables                      2                     3
     2 autoz failed with cvr_scaling = 1.3 changing to 1.4
  autoz: insufficient variables                      2                     3
     3 autoz failed with cvr_scaling = 1.4 changing to 1.5
  autoz: insufficient variables                      2                     3
     4 autoz failed with cvr_scaling = 1.5 changing to 1.6
  autoz: insufficient variables                      2                     3
     5 autoz failed with cvr_scaling = 1.6 changing to 1.7
  autoz: insufficient variables                      2                     3

 AUTOZ failed to generate good internal coordinates.
 Cartesian coordinates will be used in optimizations.

 
 
                              Geometry "start" -> ""
                              ----------------------
 
 Output coordinates in angstroms (scale by  1.889725989 to convert to a.u.)
 
  No.       Tag          Charge          X              Y              Z
 ---- ---------------- ---------- -------------- -------------- --------------
    1 C                    6.0000     0.00000000     0.00000000     0.00000000
    2 O                    8.0000     0.00000000     0.00000000     1.19628603
    3 O                    8.0000     0.00000000     0.00000000    -1.19628603
 
      Atomic Mass 
      ----------- 
 
      C                 12.000000
      O                 15.994910
 

 Effective nuclear repulsion energy (a.u.)      56.6208133062

            Nuclear Dipole moment (a.u.) 
            ----------------------------
        X                 Y               Z
 ---------------- ---------------- ----------------
     0.0000000000     0.0000000000     0.0000000000
 
      Symmetry information
      --------------------
 
 Group name             D4h       
 Group number             28
 Group order              16
 No. of unique centers     2
 
      Symmetry unique atoms
 
     1    2
 
 
            XYZ format geometry
            -------------------
     3
 start
 C                     0.00000000     0.00000000     0.00000000
 O                     0.00000000     0.00000000     1.19628603
 O                     0.00000000     0.00000000    -1.19628603
 
 ==============================================================================
                                internuclear distances
 ------------------------------------------------------------------------------
       center one      |      center two      | atomic units |  angstroms
 ------------------------------------------------------------------------------
    2 O                |   1 C                |     2.26065  |     1.19629
    3 O                |   1 C                |     2.26065  |     1.19629
 ------------------------------------------------------------------------------
                         number of included internuclear distances:          2
 ==============================================================================



 ==============================================================================
                                 internuclear angles
 ------------------------------------------------------------------------------
        center 1       |       center 2       |       center 3       |  degrees
 ------------------------------------------------------------------------------
    2 O                |   1 C                |   3 O                |   180.00
 ------------------------------------------------------------------------------
                            number of included internuclear angles:          1
 ==============================================================================



  library name resolved from: environment
  library file name is: <
 /cluster/software/NWChem/6.8.1.revision133-intel-2018b-2018-06-14-Python-2.7.15
 /data/libraries/>
  


 Summary of "ao basis" -> "" (cartesian)
 ------------------------------------------------------------------------------
       Tag                 Description            Shells   Functions and Types
 ---------------- ------------------------------  ------  ---------------------
 *                          cc-pVTZ                all atoms except metal


 
 
                           NWChem Geometry Optimization
                           ----------------------------
 
 
 
 
                              co2_cc-pVTZ_singlet_opt
 
 
 maximum gradient threshold         (gmax) =   0.000015
 rms gradient threshold             (grms) =   0.000010
 maximum cartesian step threshold   (xmax) =   0.000060
 rms cartesian step threshold       (xrms) =   0.000040
 fixed trust radius                (trust) =   0.300000
 maximum step size to saddle      (sadstp) =   0.100000
 energy precision                  (eprec) =   5.0D-06
 maximum number of steps          (nptopt) =  300
 initial hessian option           (inhess) =    0
 line search option               (linopt) =    1
 hessian update option            (modupd) =    1
 saddle point option              (modsad) =    0
 initial eigen-mode to follow     (moddir) =    0
 initial variable to follow       (vardir) =    0
 follow first negative mode     (firstneg) =    T
 apply conjugacy                    (opcg) =    F
 source of zmatrix                         =           


          -------------------
          Energy Minimization
          -------------------

 
 Using diagonal initial Hessian 

          --------
          Step   0
          --------
 
 
                          Geometry "geometry" -> "start"
                          ------------------------------
 
 Output coordinates in angstroms (scale by  1.889725989 to convert to a.u.)
 
  No.       Tag          Charge          X              Y              Z
 ---- ---------------- ---------- -------------- -------------- --------------
    1 C                    6.0000     0.00000000     0.00000000     0.00000000
    2 O                    8.0000     0.00000000     0.00000000     1.19628603
    3 O                    8.0000     0.00000000     0.00000000    -1.19628603
 
      Atomic Mass 
      ----------- 
 
      C                 12.000000
      O                 15.994910
 

 Effective nuclear repulsion energy (a.u.)      56.6208133062

            Nuclear Dipole moment (a.u.) 
            ----------------------------
        X                 Y               Z
 ---------------- ---------------- ----------------
     0.0000000000     0.0000000000     0.0000000000
 
      Symmetry information
      --------------------
 
 Group name             D4h       
 Group number             28
 Group order              16
 No. of unique centers     2
 
      Symmetry unique atoms
 
     1    2
 
 
                                 NWChem DFT Module
                                 -----------------
 
 
                              co2_cc-pVTZ_singlet_opt
 
 
                      Basis "ao basis" -> "ao basis" (cartesian)
                      -----
  C (Carbon)
  ----------
            Exponent  Coefficients 
       -------------- ---------------------------------------------------------
  1 S  8.23600000E+03  0.000531
  1 S  1.23500000E+03  0.004108
  1 S  2.80800000E+02  0.021087
  1 S  7.92700000E+01  0.081853
  1 S  2.55900000E+01  0.234817
  1 S  8.99700000E+00  0.434401
  1 S  3.31900000E+00  0.346129
  1 S  3.64300000E-01 -0.008983
 
  2 S  8.23600000E+03 -0.000113
  2 S  1.23500000E+03 -0.000878
  2 S  2.80800000E+02 -0.004540
  2 S  7.92700000E+01 -0.018133
  2 S  2.55900000E+01 -0.055760
  2 S  8.99700000E+00 -0.126895
  2 S  3.31900000E+00 -0.170352
  2 S  3.64300000E-01  0.598684
 
  3 S  9.05900000E-01  1.000000
 
  4 S  1.28500000E-01  1.000000
 
  5 P  1.87100000E+01  0.014031
  5 P  4.13300000E+00  0.086866
  5 P  1.20000000E+00  0.290216
 
  6 P  3.82700000E-01  1.000000
 
  7 P  1.20900000E-01  1.000000
 
  8 D  1.09700000E+00  1.000000
 
  9 D  3.18000000E-01  1.000000
 
 10 F  7.61000000E-01  1.000000
 
  O (Oxygen)
  ----------
            Exponent  Coefficients 
       -------------- ---------------------------------------------------------
  1 S  1.53300000E+04  0.000508
  1 S  2.29900000E+03  0.003929
  1 S  5.22400000E+02  0.020243
  1 S  1.47300000E+02  0.079181
  1 S  4.75500000E+01  0.230687
  1 S  1.67600000E+01  0.433118
  1 S  6.20700000E+00  0.350260
  1 S  6.88200000E-01 -0.008154
 
  2 S  1.53300000E+04 -0.000115
  2 S  2.29900000E+03 -0.000895
  2 S  5.22400000E+02 -0.004636
  2 S  1.47300000E+02 -0.018724
  2 S  4.75500000E+01 -0.058463
  2 S  1.67600000E+01 -0.136463
  2 S  6.20700000E+00 -0.175740
  2 S  6.88200000E-01  0.603418
 
  3 S  1.75200000E+00  1.000000
 
  4 S  2.38400000E-01  1.000000
 
  5 P  3.44600000E+01  0.015928
  5 P  7.74900000E+00  0.099740
  5 P  2.28000000E+00  0.310492
 
  6 P  7.15600000E-01  1.000000
 
  7 P  2.14000000E-01  1.000000
 
  8 D  2.31400000E+00  1.000000
 
  9 D  6.45000000E-01  1.000000
 
 10 F  1.42800000E+00  1.000000
 


 Summary of "ao basis" -> "ao basis" (cartesian)
 ------------------------------------------------------------------------------
       Tag                 Description            Shells   Functions and Types
 ---------------- ------------------------------  ------  ---------------------
 C                          cc-pVTZ                 10       35   4s3p2d1f
 O                          cc-pVTZ                 10       35   4s3p2d1f




 Summary of "ao basis" -> "ao basis" (cartesian)
 ------------------------------------------------------------------------------
       Tag                 Description            Shells   Functions and Types
 ---------------- ------------------------------  ------  ---------------------
 C                          cc-pVTZ                 10       35   4s3p2d1f
 O                          cc-pVTZ                 10       35   4s3p2d1f


      Symmetry analysis of basis
      --------------------------
 
        a1g        21
        a1u         0
        a2g         0
        a2u        18
        b1g         5
        b1u         4
        b2g         5
        b2u         4
        eg         20
        eu         28
 
  texas integral default override: limxmem =             150000000
  Caching 1-el integrals 
 
            General Information
            -------------------
          SCF calculation type: DFT
          Wavefunction type:  spin polarized.
          No. of atoms     :     3
          No. of electrons :    22
           Alpha electrons :    11
            Beta electrons :    11
          Charge           :     0
          Spin multiplicity:     1
          Use of symmetry is: on ; symmetry adaption is: on 
          Maximum number of iterations: 300
          This is a Direct SCF calculation.
          AO basis - number of functions:   105
                     number of shells:    30
          Convergence on energy requested:  1.00D-07
          Convergence on density requested:  1.00D-06
          Convergence on gradient requested:  5.00D-04
 
              XC Information
              --------------
                         B3LYP Method XC Potential
                     Hartree-Fock (Exact) Exchange  0.200          
                        Slater Exchange Functional  0.800 local    
                    Becke 1988 Exchange Functional  0.720 non-local
              Lee-Yang-Parr Correlation Functional  0.810          
                  VWN I RPA Correlation Functional  0.190 local    
 
             Grid Information
             ----------------
          Grid used for XC integration:  huge      
          Radial quadrature: Mura-Knowles        
          Angular quadrature: Lebedev. 
          Tag              B.-S. Rad. Rad. Pts. Rad. Cut. Ang. Pts.
          ---              ---------- --------- --------- ---------
          C                   0.70      300           7.0      1454
          O                   0.60      300           8.0      1454
          Grid pruning is: on 
          Number of quadrature shells:   600
          Spatial weights used:  Erf1
 
          Convergence Information
          -----------------------
          Convergence aids based upon iterative change in 
          total energy or number of iterations. 
          Levelshifting, if invoked, occurs when the 
          HOMO/LUMO gap drops below (HL_TOL):  1.00D-02
          DIIS, if invoked, will attempt to extrapolate 
          using up to (NFOCK): 10 stored Fock matrices.

                    Damping( 0%)  Levelshifting(0.5)       DIIS
                  --------------- ------------------- ---------------
          dE  on:    start            ASAP                start   
          dE off:    2 iters        300 iters           300 iters 

 
      Screening Tolerance Information
      -------------------------------
          Density screening/tol_rho:  1.00D-10
          AO Gaussian exp screening on grid/accAOfunc:  16
          CD Gaussian exp screening on grid/accCDfunc:  20
          XC Gaussian exp screening on grid/accXCfunc:  20
          Schwarz screening/accCoul:  1.00D-08

 
      Superposition of Atomic Density Guess
      -------------------------------------
 
 Sum of atomic energies:        -187.23183577
 
      Non-variational initial energy
      ------------------------------

 Total energy =    -188.091964
 1-e energy   =    -368.686449
 2-e energy   =     123.973672
 HOMO         =      -0.467688
 LUMO         =       0.101376
 
 
   Symmetry analysis of molecular orbitals - initial alpha
   -------------------------------------------------------
 
  Numbering of irreducible representations: 
 
     1 a1g         2 a1u         3 a2g         4 a2u         5 b1g     
     6 b1u         7 b2g         8 b2u         9 eg         10 eu      
 
  Orbital symmetries:
 
     1 a1g         2 a2u         3 a1g         4 a1g         5 a2u     
     6 a1g         7 a2u         8 eu          9 eu         10 eg      
    11 eg         12 a1g        13 eu         14 eu         15 a2u     
    16 eu         17 eu         18 a1g        19 a1g        20 a2u     
    21 eg      
 
 
   Symmetry analysis of molecular orbitals - initial beta
   ------------------------------------------------------
 
  Numbering of irreducible representations: 
 
     1 a1g         2 a1u         3 a2g         4 a2u         5 b1g     
     6 b1u         7 b2g         8 b2u         9 eg         10 eu      
 
  Orbital symmetries:
 
     1 a1g         2 a2u         3 a1g         4 a1g         5 a2u     
     6 a1g         7 a2u         8 eu          9 eu         10 eg      
    11 eg         12 a1g        13 eu         14 eu         15 a2u     
    16 eu         17 eu         18 a1g        19 a1g        20 a2u     
    21 eg      
 
   Time after variat. SCF:      5.6
   Time prior to 1st pass:      5.6

 Grid_pts file          = ./co2_cc-pVTZ_singlet.gridpts.00
 Record size in doubles =  12289        No. of grid_pts per rec  =   3070
 Max. records in memory =     17        Max. recs in file   =  50662543

 Grid integrated density:      21.999999870130
 Requested integration accuracy:   0.10E-09

           Memory utilization after 1st SCF pass: 
           Heap Space remaining (MW):       46.71            46711808
          Stack Space remaining (MW):       78.04            78037140

   convergence    iter        energy       DeltaE   RMS-Dens  Diis-err    time
 ---------------- ----- ----------------- --------- --------- ---------  ------
 d= 0,ls=0.0,diis     1   -188.5229221487 -2.45D+02  4.37D-03  3.46D-01     6.0
                                                     4.37D-03  3.46D-01
 Grid integrated density:      21.999999886046
 Requested integration accuracy:   0.10E-09
 d= 0,ls=0.0,diis     2   -188.2904238112  2.32D-01  2.56D-03  1.05D+00     6.3
                                                     2.56D-03  1.05D+00
 Grid integrated density:      21.999999872333
 Requested integration accuracy:   0.10E-09
 d= 0,ls=0.0,diis     3   -188.6543367032 -3.64D-01  4.37D-04  1.22D-02     6.5
                                                     4.37D-04  1.22D-02
 Grid integrated density:      21.999999870261
 Requested integration accuracy:   0.10E-09
 d= 0,ls=0.0,diis     4   -188.6573311575 -2.99D-03  1.48D-04  1.63D-03     6.8
                                                     1.48D-04  1.63D-03
 Grid integrated density:      21.999999871216
 Requested integration accuracy:   0.10E-09
 d= 0,ls=0.0,diis     5   -188.6578597873 -5.29D-04  7.51D-06  2.62D-06     7.0
                                                     7.51D-06  2.62D-06
 Grid integrated density:      21.999999871170
 Requested integration accuracy:   0.10E-09
 d= 0,ls=0.0,diis     6   -188.6578607805 -9.93D-07  8.62D-07  6.45D-08     7.3
                                                     8.62D-07  6.45D-08
 Grid integrated density:      21.999999871168
 Requested integration accuracy:   0.10E-09
 d= 0,ls=0.0,diis     7   -188.6578608009 -2.04D-08  1.30D-07  2.12D-09     7.5
                                                     1.30D-07  2.12D-09


         Total DFT energy =     -188.657860800862
      One electron energy =     -369.512526682815
           Coulomb energy =      146.723244390737
    Exchange-Corr. energy =      -22.489391814943
 Nuclear repulsion energy =       56.620813306159

 Numeric. integr. density =       21.999999871168

     Total iterative time =      1.9s


 
                  Occupations of the irreducible representations
                  ----------------------------------------------
 
                     irrep           alpha         beta
                     --------     --------     --------
                     a1g               4.0          4.0
                     a1u               0.0          0.0
                     a2g               0.0          0.0
                     a2u               3.0          3.0
                     b1g               0.0          0.0
                     b1u               0.0          0.0
                     b2g               0.0          0.0
                     b2u               0.0          0.0
                     eg                2.0          2.0
                     eu                2.0          2.0
 
 
                    DFT Final Alpha Molecular Orbital Analysis
                    ------------------------------------------
 
 Vector    1  Occ=1.000000D+00  E=-1.922291D+01  Symmetry=a2u
              MO Center=  0.0D+00,  0.0D+00, -3.1D-16, r^2= 1.4D+00
   Bfn.  Coefficient  Atom+Function         Bfn.  Coefficient  Atom+Function  
  ----- ------------  ---------------      ----- ------------  ---------------
    36      0.693895  2 O  s                 71     -0.693895  3 O  s          
    38      0.037021  2 O  s                 73     -0.037021  3 O  s          
 
 Vector    2  Occ=1.000000D+00  E=-1.922284D+01  Symmetry=a1g
              MO Center=  0.0D+00,  0.0D+00,  7.8D-16, r^2= 1.4D+00
   Bfn.  Coefficient  Atom+Function         Bfn.  Coefficient  Atom+Function  
  ----- ------------  ---------------      ----- ------------  ---------------
    36      0.688520  2 O  s                 71      0.688520  3 O  s          
    38      0.037381  2 O  s                 73      0.037381  3 O  s          
 
 Vector    3  Occ=1.000000D+00  E=-1.038280D+01  Symmetry=a1g
              MO Center=  0.0D+00,  0.0D+00, -2.7D-19, r^2= 2.8D-02
   Bfn.  Coefficient  Atom+Function         Bfn.  Coefficient  Atom+Function  
  ----- ------------  ---------------      ----- ------------  ---------------
     1      0.990173  1 C  s                  3      0.053565  1 C  s          
     2      0.038046  1 C  s          
 
 Vector    4  Occ=1.000000D+00  E=-1.153689D+00  Symmetry=a1g
              MO Center=  0.0D+00,  0.0D+00,  2.8D-17, r^2= 1.1D+00
   Bfn.  Coefficient  Atom+Function         Bfn.  Coefficient  Atom+Function  
  ----- ------------  ---------------      ----- ------------  ---------------
    37      0.300355  2 O  s                 72      0.300355  3 O  s          
     2      0.284687  1 C  s                 39      0.132028  2 O  s          
    74      0.132028  3 O  s                  3      0.086269  1 C  s          
    38      0.086644  2 O  s                 73      0.086644  3 O  s          
    42     -0.075189  2 O  pz                77      0.075189  3 O  pz         
 
 Vector    5  Occ=1.000000D+00  E=-1.113922D+00  Symmetry=a2u
              MO Center=  0.0D+00,  0.0D+00, -2.0D-16, r^2= 1.2D+00
   Bfn.  Coefficient  Atom+Function         Bfn.  Coefficient  Atom+Function  
  ----- ------------  ---------------      ----- ------------  ---------------
    37      0.326440  2 O  s                 72     -0.326440  3 O  s          
     7      0.193810  1 C  pz                39      0.177863  2 O  s          
    74     -0.177863  3 O  s                 10      0.126216  1 C  pz         
    38      0.095348  2 O  s                 73     -0.095348  3 O  s          
    42     -0.074434  2 O  pz                77     -0.074434  3 O  pz         
 
 Vector    6  Occ=1.000000D+00  E=-5.773845D-01  Symmetry=a1g
              MO Center=  0.0D+00,  0.0D+00,  0.0D+00, r^2= 2.2D+00
   Bfn.  Coefficient  Atom+Function         Bfn.  Coefficient  Atom+Function  
  ----- ------------  ---------------      ----- ------------  ---------------
     2      0.312079  1 C  s                 39     -0.240020  2 O  s          
    74     -0.240020  3 O  s                 37     -0.228526  2 O  s          
    72     -0.228526  3 O  s                 42     -0.191877  2 O  pz         
    77      0.191877  3 O  pz                45     -0.177970  2 O  pz         
    80      0.177970  3 O  pz                48     -0.131815  2 O  pz         
 
 Vector    7  Occ=1.000000D+00  E=-5.272785D-01  Symmetry=a2u
              MO Center=  0.0D+00,  0.0D+00,  1.7D-16, r^2= 2.3D+00
   Bfn.  Coefficient  Atom+Function         Bfn.  Coefficient  Atom+Function  
  ----- ------------  ---------------      ----- ------------  ---------------
    42      0.234333  2 O  pz                77      0.234333  3 O  pz         
    45      0.215357  2 O  pz                80      0.215357  3 O  pz         
     7     -0.210386  1 C  pz                10     -0.173569  1 C  pz         
    37      0.173633  2 O  s                 72     -0.173633  3 O  s          
    48      0.169542  2 O  pz                83      0.169542  3 O  pz         
 
 Vector    8  Occ=1.000000D+00  E=-5.132151D-01  Symmetry=eu
              MO Center=  0.0D+00,  0.0D+00, -3.5D-17, r^2= 1.5D+00
   Bfn.  Coefficient  Atom+Function         Bfn.  Coefficient  Atom+Function  
  ----- ------------  ---------------      ----- ------------  ---------------
     8      0.188144  1 C  px                 5      0.182052  1 C  px         
    43      0.175928  2 O  px                78      0.175928  3 O  px         
    40      0.159661  2 O  px                75      0.159661  3 O  px         
     9     -0.146833  1 C  py                 6     -0.142078  1 C  py         
    44     -0.137299  2 O  py                79     -0.137299  3 O  py         
 
 Vector    9  Occ=1.000000D+00  E=-5.132151D-01  Symmetry=eu
              MO Center=  0.0D+00,  0.0D+00,  7.3D-17, r^2= 1.5D+00
   Bfn.  Coefficient  Atom+Function         Bfn.  Coefficient  Atom+Function  
  ----- ------------  ---------------      ----- ------------  ---------------
     9      0.188144  1 C  py                 6      0.182052  1 C  py         
    44      0.175928  2 O  py                79      0.175928  3 O  py         
    41      0.159661  2 O  py                76      0.159661  3 O  py         
     8      0.146833  1 C  px                 5      0.142078  1 C  px         
    43      0.137299  2 O  px                78      0.137299  3 O  px         
 
 Vector   10  Occ=1.000000D+00  E=-3.799815D-01  Symmetry=eg
              MO Center= -8.4D-17, -1.8D-16, -8.0D-16, r^2= 1.9D+00
   Bfn.  Coefficient  Atom+Function         Bfn.  Coefficient  Atom+Function  
  ----- ------------  ---------------      ----- ------------  ---------------
    44      0.229425  2 O  py                79     -0.229425  3 O  py         
    41      0.217155  2 O  py                76     -0.217155  3 O  py         
    47      0.199127  2 O  py                82     -0.199127  3 O  py         
    43      0.177133  2 O  px                78     -0.177133  3 O  px         
    40      0.167660  2 O  px                75     -0.167660  3 O  px         
 
 Vector   11  Occ=1.000000D+00  E=-3.799815D-01  Symmetry=eg
              MO Center= -4.3D-17, -2.5D-18,  5.1D-15, r^2= 1.9D+00
   Bfn.  Coefficient  Atom+Function         Bfn.  Coefficient  Atom+Function  
  ----- ------------  ---------------      ----- ------------  ---------------
    43      0.229425  2 O  px                78     -0.229425  3 O  px         
    40      0.217155  2 O  px                75     -0.217155  3 O  px         
    46      0.199127  2 O  px                81     -0.199127  3 O  px         
    44     -0.177133  2 O  py                79      0.177133  3 O  py         
    41     -0.167660  2 O  py                76      0.167660  3 O  py         
 
 Vector   12  Occ=0.000000D+00  E= 1.876988D-03  Symmetry=eu
              MO Center= -9.3D-15, -1.2D-14,  1.6D-15, r^2= 1.6D+00
   Bfn.  Coefficient  Atom+Function         Bfn.  Coefficient  Atom+Function  
  ----- ------------  ---------------      ----- ------------  ---------------
    12      0.407430  1 C  py                 9      0.389252  1 C  py         
    11      0.329023  1 C  px                 8      0.314344  1 C  px         
    47     -0.292102  2 O  py                82     -0.292102  3 O  py         
     6      0.245997  1 C  py                46     -0.235890  2 O  px         
    81     -0.235890  3 O  px                 5      0.198657  1 C  px         
 
 Vector   13  Occ=0.000000D+00  E= 1.876988D-03  Symmetry=eu
              MO Center= -6.8D-30,  5.6D-30, -4.9D-15, r^2= 1.6D+00
   Bfn.  Coefficient  Atom+Function         Bfn.  Coefficient  Atom+Function  
  ----- ------------  ---------------      ----- ------------  ---------------
    11      0.407430  1 C  px                 8      0.389252  1 C  px         
    12     -0.329023  1 C  py                 9     -0.314344  1 C  py         
    46     -0.292102  2 O  px                81     -0.292102  3 O  px         
     5      0.245997  1 C  px                47      0.235890  2 O  py         
    82      0.235890  3 O  py                 6     -0.198657  1 C  py         
 
 Vector   14  Occ=0.000000D+00  E= 2.162545D-02  Symmetry=a1g
              MO Center=  9.0D-15,  1.1D-14, -2.5D-16, r^2= 2.7D+00
   Bfn.  Coefficient  Atom+Function         Bfn.  Coefficient  Atom+Function  
  ----- ------------  ---------------      ----- ------------  ---------------
     4      2.787100  1 C  s                 39     -0.943677  2 O  s          
    74     -0.943677  3 O  s                 48      0.385563  2 O  pz         
    83     -0.385563  3 O  pz                20     -0.318887  1 C  dxx        
    23     -0.318887  1 C  dyy                2      0.285227  1 C  s          
    25     -0.184434  1 C  dzz                3     -0.180989  1 C  s          
 
 Vector   15  Occ=0.000000D+00  E= 2.073164D-01  Symmetry=a2u
              MO Center=  1.3D-16, -1.2D-16, -3.9D-15, r^2= 5.6D+00
   Bfn.  Coefficient  Atom+Function         Bfn.  Coefficient  Atom+Function  
  ----- ------------  ---------------      ----- ------------  ---------------
    39     -3.613050  2 O  s                 74      3.613050  3 O  s          
    13      3.452071  1 C  pz                10      0.956429  1 C  pz         
    48      0.875598  2 O  pz                83      0.875598  3 O  pz         
    55      0.347598  2 O  dxx               58      0.347598  2 O  dyy        
    90     -0.347598  3 O  dxx               93     -0.347598  3 O  dyy        
 
 Vector   16  Occ=0.000000D+00  E= 2.408365D-01  Symmetry=eu
              MO Center= -1.9D-14, -1.0D-14, -1.3D-15, r^2= 3.6D+00
   Bfn.  Coefficient  Atom+Function         Bfn.  Coefficient  Atom+Function  
  ----- ------------  ---------------      ----- ------------  ---------------
    11     -1.328108  1 C  px                 8      1.207590  1 C  px         
    12     -0.686819  1 C  py                 9      0.624495  1 C  py         
    26     -0.290862  1 C  fxxx              29     -0.290862  1 C  fxyy       
    31     -0.273714  1 C  fxzz              27     -0.150417  1 C  fxxy       
    32     -0.150417  1 C  fyyy              34     -0.141549  1 C  fyzz       
 
 Vector   17  Occ=0.000000D+00  E= 2.408365D-01  Symmetry=eu
              MO Center= -8.1D-15,  1.6D-14,  1.9D-15, r^2= 3.6D+00
   Bfn.  Coefficient  Atom+Function         Bfn.  Coefficient  Atom+Function  
  ----- ------------  ---------------      ----- ------------  ---------------
    12     -1.328108  1 C  py                 9      1.207590  1 C  py         
    11      0.686819  1 C  px                 8     -0.624495  1 C  px         
    27     -0.290862  1 C  fxxy              32     -0.290862  1 C  fyyy       
    34     -0.273714  1 C  fyzz              26      0.150417  1 C  fxxx       
    29      0.150417  1 C  fxyy              31      0.141549  1 C  fxzz       
 
 Vector   18  Occ=0.000000D+00  E= 2.826897D-01  Symmetry=a1g
              MO Center=  2.8D-14, -5.4D-15,  7.1D-15, r^2= 2.6D+00
   Bfn.  Coefficient  Atom+Function         Bfn.  Coefficient  Atom+Function  
  ----- ------------  ---------------      ----- ------------  ---------------
     4      3.632681  1 C  s                 20     -1.128126  1 C  dxx        
    23     -1.128126  1 C  dyy               39     -0.903495  2 O  s          
    74     -0.903495  3 O  s                  3     -0.807256  1 C  s          
     2     -0.343324  1 C  s                 25     -0.239176  1 C  dzz        
    42     -0.215758  2 O  pz                77      0.215758  3 O  pz         
 
 Vector   19  Occ=0.000000D+00  E= 4.868372D-01  Symmetry=a1g
              MO Center=  9.5D-17,  1.4D-16,  8.8D-16, r^2= 5.6D+00
   Bfn.  Coefficient  Atom+Function         Bfn.  Coefficient  Atom+Function  
  ----- ------------  ---------------      ----- ------------  ---------------
    48      1.437771  2 O  pz                83     -1.437771  3 O  pz         
    25      1.326202  1 C  dzz                3      0.749650  1 C  s          
     2      0.590203  1 C  s                 20      0.586720  1 C  dxx        
    23      0.586720  1 C  dyy               45     -0.563060  2 O  pz         
    80      0.563060  3 O  pz                 4     -0.480034  1 C  s          
 
 Vector   20  Occ=0.000000D+00  E= 4.881498D-01  Symmetry=a2u
              MO Center=  2.3D-15, -8.7D-16, -2.0D-15, r^2= 4.6D+00
   Bfn.  Coefficient  Atom+Function         Bfn.  Coefficient  Atom+Function  
  ----- ------------  ---------------      ----- ------------  ---------------
    10      2.435142  1 C  pz                48      1.605282  2 O  pz         
    83      1.605282  3 O  pz                13     -0.716836  1 C  pz         
    39     -0.670819  2 O  s                 74      0.670819  3 O  s          
    60     -0.363863  2 O  dzz               95      0.363863  3 O  dzz        
    28     -0.328358  1 C  fxxz              33     -0.328358  1 C  fyyz       
 
 Vector   21  Occ=0.000000D+00  E= 5.242818D-01  Symmetry=eg
              MO Center= -3.8D-17,  4.4D-16, -7.3D-15, r^2= 4.2D+00
   Bfn.  Coefficient  Atom+Function         Bfn.  Coefficient  Atom+Function  
  ----- ------------  ---------------      ----- ------------  ---------------
    47      1.195644  2 O  py                82     -1.195644  3 O  py         
    24     -1.035837  1 C  dyz               44     -0.741066  2 O  py         
    79      0.741066  3 O  py                46      0.201491  2 O  px         
    81     -0.201491  3 O  px                69      0.176650  2 O  fyzz       
   104     -0.176650  3 O  fyzz              22     -0.174560  1 C  dxz        
 
 Vector   22  Occ=0.000000D+00  E= 5.242818D-01  Symmetry=eg
              MO Center= -2.1D-15,  1.9D-16, -1.9D-14, r^2= 4.2D+00
   Bfn.  Coefficient  Atom+Function         Bfn.  Coefficient  Atom+Function  
  ----- ------------  ---------------      ----- ------------  ---------------
    46      1.195644  2 O  px                81     -1.195644  3 O  px         
    22     -1.035837  1 C  dxz               43     -0.741066  2 O  px         
    78      0.741066  3 O  px                47     -0.201491  2 O  py         
    82      0.201491  3 O  py                66      0.176650  2 O  fxzz       
   101     -0.176650  3 O  fxzz              24      0.174560  1 C  dyz        
 
 Vector   23  Occ=0.000000D+00  E= 5.831020D-01  Symmetry=b1g
              MO Center= -1.3D-16,  1.4D-16,  7.7D-18, r^2= 1.6D+00
   Bfn.  Coefficient  Atom+Function         Bfn.  Coefficient  Atom+Function  
  ----- ------------  ---------------      ----- ------------  ---------------
    20      0.827219  1 C  dxx               23     -0.827219  1 C  dyy        
    55      0.065289  2 O  dxx               58     -0.065289  2 O  dyy        
    90      0.065289  3 O  dxx               93     -0.065289  3 O  dyy        
 
 Vector   24  Occ=0.000000D+00  E= 5.831020D-01  Symmetry=b2g
              MO Center=  7.8D-18,  1.2D-16, -2.1D-17, r^2= 1.6D+00
   Bfn.  Coefficient  Atom+Function         Bfn.  Coefficient  Atom+Function  
  ----- ------------  ---------------      ----- ------------  ---------------
    21      1.654438  1 C  dxy               56      0.130577  2 O  dxy        
    91      0.130577  3 O  dxy        
 
 Vector   25  Occ=0.000000D+00  E= 7.052084D-01  Symmetry=eu
              MO Center= -4.0D-17,  2.1D-15,  4.8D-15, r^2= 4.2D+00
   Bfn.  Coefficient  Atom+Function         Bfn.  Coefficient  Atom+Function  
  ----- ------------  ---------------      ----- ------------  ---------------
    47      1.515151  2 O  py                82      1.515151  3 O  py         
    12     -1.355162  1 C  py                44     -1.008666  2 O  py         
    79     -1.008666  3 O  py                 9     -0.257726  1 C  py         
    69      0.247433  2 O  fyzz             104      0.247433  3 O  fyzz       
    62      0.232218  2 O  fxxy              67      0.232218  2 O  fyyy       
 
 Vector   26  Occ=0.000000D+00  E= 7.052084D-01  Symmetry=eu
              MO Center=  1.8D-15,  4.4D-17,  2.0D-14, r^2= 4.2D+00
   Bfn.  Coefficient  Atom+Function         Bfn.  Coefficient  Atom+Function  
  ----- ------------  ---------------      ----- ------------  ---------------
    46      1.515151  2 O  px                81      1.515151  3 O  px         
    11     -1.355162  1 C  px                43     -1.008666  2 O  px         
    78     -1.008666  3 O  px                 8     -0.257726  1 C  px         
    66      0.247433  2 O  fxzz             101      0.247433  3 O  fxzz       
    61      0.232218  2 O  fxxx              64      0.232218  2 O  fxyy       
 
 Vector   27  Occ=0.000000D+00  E= 8.428949D-01  Symmetry=a2u
              MO Center=  7.7D-18, -1.6D-18, -5.3D-15, r^2= 1.4D+00
   Bfn.  Coefficient  Atom+Function         Bfn.  Coefficient  Atom+Function  
  ----- ------------  ---------------      ----- ------------  ---------------
    39      0.849700  2 O  s                 74     -0.849700  3 O  s          
    48     -0.702990  2 O  pz                83     -0.702990  3 O  pz         
     7      0.556480  1 C  pz                10     -0.457829  1 C  pz         
    35     -0.378563  1 C  fzzz              60      0.303528  2 O  dzz        
    95     -0.303528  3 O  dzz               42      0.273555  2 O  pz         
 
 Vector   28  Occ=0.000000D+00  E= 9.100176D-01  Symmetry=a1g
              MO Center= -1.5D-15, -2.6D-15,  1.2D-12, r^2= 3.3D+00
   Bfn.  Coefficient  Atom+Function         Bfn.  Coefficient  Atom+Function  
  ----- ------------  ---------------      ----- ------------  ---------------
    39      5.561754  2 O  s                 74      5.561754  3 O  s          
     4     -4.743317  1 C  s                 48     -1.520791  2 O  pz         
    83      1.520791  3 O  pz                 2     -1.107969  1 C  s          
    60     -1.020380  2 O  dzz               95     -1.020380  3 O  dzz        
    55     -0.782180  2 O  dxx               58     -0.782180  2 O  dyy        
 
 Vector   29  Occ=0.000000D+00  E= 9.406327D-01  Symmetry=eg
              MO Center=  7.8D-17,  2.2D-16, -5.0D-16, r^2= 1.7D+00
   Bfn.  Coefficient  Atom+Function         Bfn.  Coefficient  Atom+Function  
  ----- ------------  ---------------      ----- ------------  ---------------
    24      1.788991  1 C  dyz               22      1.608196  1 C  dxz        
    44     -0.416001  2 O  py                79      0.416001  3 O  py         
    43     -0.373960  2 O  px                78      0.373960  3 O  px         
    47     -0.254267  2 O  py                82      0.254267  3 O  py         
    46     -0.228571  2 O  px                81      0.228571  3 O  px         
 
 Vector   30  Occ=0.000000D+00  E= 9.406327D-01  Symmetry=eg
              MO Center=  1.4D-16, -2.0D-16,  1.3D-15, r^2= 1.7D+00
   Bfn.  Coefficient  Atom+Function         Bfn.  Coefficient  Atom+Function  
  ----- ------------  ---------------      ----- ------------  ---------------
    22      1.788991  1 C  dxz               24     -1.608196  1 C  dyz        
    43     -0.416001  2 O  px                78      0.416001  3 O  px         
    44      0.373960  2 O  py                79     -0.373960  3 O  py         
    46     -0.254267  2 O  px                81      0.254267  3 O  px         
    47      0.228571  2 O  py                82     -0.228571  3 O  py         
 
 Vector   31  Occ=0.000000D+00  E= 9.881830D-01  Symmetry=a2u
              MO Center= -1.6D-16,  1.7D-16, -1.2D-12, r^2= 4.6D+00
   Bfn.  Coefficient  Atom+Function         Bfn.  Coefficient  Atom+Function  
  ----- ------------  ---------------      ----- ------------  ---------------
    39      8.669686  2 O  s                 74     -8.669686  3 O  s          
    13     -4.738874  1 C  pz                10     -1.584756  1 C  pz         
    55     -1.292915  2 O  dxx               58     -1.292915  2 O  dyy        
    90      1.292915  3 O  dxx               93      1.292915  3 O  dyy        
    48     -1.234391  2 O  pz                83     -1.234391  3 O  pz         
 
 Vector   32  Occ=0.000000D+00  E= 1.055224D+00  Symmetry=a1g
              MO Center= -4.4D-17, -1.3D-16, -1.2D-14, r^2= 3.3D+00
   Bfn.  Coefficient  Atom+Function         Bfn.  Coefficient  Atom+Function  
  ----- ------------  ---------------      ----- ------------  ---------------
    39      4.814674  2 O  s                 74      4.814674  3 O  s          
    25     -4.117529  1 C  dzz               20     -3.036388  1 C  dxx        
    23     -3.036388  1 C  dyy               48     -2.186419  2 O  pz         
    83      2.186419  3 O  pz                 3     -1.935622  1 C  s          
     4      1.591884  1 C  s                  2      0.859876  1 C  s          
 
 Vector   33  Occ=0.000000D+00  E= 1.375477D+00  Symmetry=b2u
              MO Center=  1.3D-16,  6.9D-17,  1.5D-16, r^2= 2.0D+00
   Bfn.  Coefficient  Atom+Function         Bfn.  Coefficient  Atom+Function  
  ----- ------------  ---------------      ----- ------------  ---------------
    55      0.571433  2 O  dxx               58     -0.571433  2 O  dyy        
    90     -0.571433  3 O  dxx               93      0.571433  3 O  dyy        
    28      0.275221  1 C  fxxz              33     -0.275221  1 C  fyyz       
 
 Vector   34  Occ=0.000000D+00  E= 1.375477D+00  Symmetry=b1u
              MO Center= -1.3D-16,  3.2D-16,  4.4D-16, r^2= 2.0D+00
   Bfn.  Coefficient  Atom+Function         Bfn.  Coefficient  Atom+Function  
  ----- ------------  ---------------      ----- ------------  ---------------
    56      1.142866  2 O  dxy               91     -1.142866  3 O  dxy        
    30      0.550442  1 C  fxyz       
 
 Vector   35  Occ=0.000000D+00  E= 1.517077D+00  Symmetry=eu
              MO Center= -2.7D-16,  2.5D-16, -1.2D-15, r^2= 1.9D+00
   Bfn.  Coefficient  Atom+Function         Bfn.  Coefficient  Atom+Function  
  ----- ------------  ---------------      ----- ------------  ---------------
     8      3.908133  1 C  px                31     -1.866998  1 C  fxzz       
    26     -1.492280  1 C  fxxx              29     -1.492280  1 C  fxyy       
     5     -1.440869  1 C  px                 9     -1.446001  1 C  py         
    11     -1.059685  1 C  px                34      0.690786  1 C  fyzz       
    27      0.552141  1 C  fxxy              32      0.552141  1 C  fyyy       
 
 Vector   36  Occ=0.000000D+00  E= 1.517077D+00  Symmetry=eu
              MO Center= -6.2D-16,  2.8D-16, -9.7D-17, r^2= 1.9D+00
   Bfn.  Coefficient  Atom+Function         Bfn.  Coefficient  Atom+Function  
  ----- ------------  ---------------      ----- ------------  ---------------
     9      3.908133  1 C  py                34     -1.866998  1 C  fyzz       
    27     -1.492280  1 C  fxxy              32     -1.492280  1 C  fyyy       
     6     -1.440869  1 C  py                 8      1.446001  1 C  px         
    12     -1.059685  1 C  py                31     -0.690786  1 C  fxzz       
    26     -0.552141  1 C  fxxx              29     -0.552141  1 C  fxyy       
 
 Vector   37  Occ=0.000000D+00  E= 1.628281D+00  Symmetry=b1g
              MO Center= -1.2D-16, -6.2D-18, -1.3D-16, r^2= 2.2D+00
   Bfn.  Coefficient  Atom+Function         Bfn.  Coefficient  Atom+Function  
  ----- ------------  ---------------      ----- ------------  ---------------
    55      0.659061  2 O  dxx               58     -0.659061  2 O  dyy        
    90      0.659061  3 O  dxx               93     -0.659061  3 O  dyy        
    20     -0.447580  1 C  dxx               23      0.447580  1 C  dyy        
 
 Vector   38  Occ=0.000000D+00  E= 1.628281D+00  Symmetry=b2g
              MO Center=  8.5D-16,  1.5D-16, -4.4D-16, r^2= 2.2D+00
   Bfn.  Coefficient  Atom+Function         Bfn.  Coefficient  Atom+Function  
  ----- ------------  ---------------      ----- ------------  ---------------
    56      1.318123  2 O  dxy               91      1.318123  3 O  dxy        
    21     -0.895161  1 C  dxy        
 
 Vector   39  Occ=0.000000D+00  E= 1.897323D+00  Symmetry=a2u
              MO Center= -3.0D-18,  1.3D-17, -1.6D-13, r^2= 3.5D+00
   Bfn.  Coefficient  Atom+Function         Bfn.  Coefficient  Atom+Function  
  ----- ------------  ---------------      ----- ------------  ---------------
    10      6.702468  1 C  pz                39     -2.745677  2 O  s          
    74      2.745677  3 O  s                 48      1.907678  2 O  pz         
    83      1.907678  3 O  pz                60     -1.736434  2 O  dzz        
    95      1.736434  3 O  dzz               45      1.219343  2 O  pz         
    80      1.219343  3 O  pz                28     -0.787468  1 C  fxxz       
 
 Vector   40  Occ=0.000000D+00  E= 1.898377D+00  Symmetry=eu
              MO Center=  4.5D-18,  1.8D-16,  1.1D-14, r^2= 2.4D+00
   Bfn.  Coefficient  Atom+Function         Bfn.  Coefficient  Atom+Function  
  ----- ------------  ---------------      ----- ------------  ---------------
     9      2.265303  1 C  py                59      1.547714  2 O  dyz        
    94     -1.547714  3 O  dyz               27     -0.589096  1 C  fxxy       
    32     -0.589096  1 C  fyyy              47     -0.520527  2 O  py         
    82     -0.520527  3 O  py                 6     -0.408725  1 C  py         
    34     -0.406803  1 C  fyzz               8      0.348157  1 C  px         
 
 Vector   41  Occ=0.000000D+00  E= 1.898377D+00  Symmetry=eu
              MO Center= -4.9D-18, -1.4D-17,  3.9D-15, r^2= 2.4D+00
   Bfn.  Coefficient  Atom+Function         Bfn.  Coefficient  Atom+Function  
  ----- ------------  ---------------      ----- ------------  ---------------
     8      2.265303  1 C  px                57      1.547714  2 O  dxz        
    92     -1.547714  3 O  dxz               26     -0.589096  1 C  fxxx       
    29     -0.589096  1 C  fxyy              46     -0.520527  2 O  px         
    81     -0.520527  3 O  px                 5     -0.408725  1 C  px         
    31     -0.406803  1 C  fxzz               9     -0.348157  1 C  py         
 
 Vector   42  Occ=0.000000D+00  E= 2.090013D+00  Symmetry=a1g
              MO Center= -2.4D-17, -2.7D-17,  9.0D-15, r^2= 3.8D+00
   Bfn.  Coefficient  Atom+Function         Bfn.  Coefficient  Atom+Function  
  ----- ------------  ---------------      ----- ------------  ---------------
    25      6.933456  1 C  dzz               39     -4.190521  2 O  s          
    74     -4.190521  3 O  s                 48      2.362419  2 O  pz         
    83     -2.362419  3 O  pz                 3      2.330510  1 C  s          
    60     -1.283049  2 O  dzz               95     -1.283049  3 O  dzz        
    20      1.098128  1 C  dxx               23      1.098128  1 C  dyy        
 
 Vector   43  Occ=0.000000D+00  E= 2.128810D+00  Symmetry=eg
              MO Center= -2.6D-17, -2.5D-17, -5.9D-15, r^2= 2.9D+00
   Bfn.  Coefficient  Atom+Function         Bfn.  Coefficient  Atom+Function  
  ----- ------------  ---------------      ----- ------------  ---------------
    22      2.535969  1 C  dxz               24      2.522608  1 C  dyz        
    57      1.239824  2 O  dxz               92      1.239824  3 O  dxz        
    59      1.233292  2 O  dyz               94      1.233292  3 O  dyz        
    46     -0.773451  2 O  px                81      0.773451  3 O  px         
    47     -0.769376  2 O  py                82      0.769376  3 O  py         
 
 Vector   44  Occ=0.000000D+00  E= 2.128810D+00  Symmetry=eg
              MO Center=  1.3D-18, -1.3D-18, -8.5D-15, r^2= 2.9D+00
   Bfn.  Coefficient  Atom+Function         Bfn.  Coefficient  Atom+Function  
  ----- ------------  ---------------      ----- ------------  ---------------
    24     -2.535969  1 C  dyz               22      2.522608  1 C  dxz        
    59     -1.239824  2 O  dyz               94     -1.239824  3 O  dyz        
    57      1.233292  2 O  dxz               92      1.233292  3 O  dxz        
    47      0.773451  2 O  py                82     -0.773451  3 O  py         
    46     -0.769376  2 O  px                81      0.769376  3 O  px         
 
 Vector   45  Occ=0.000000D+00  E= 2.358820D+00  Symmetry=a2u
              MO Center= -2.9D-17,  2.2D-17,  7.0D-14, r^2= 1.8D+00
   Bfn.  Coefficient  Atom+Function         Bfn.  Coefficient  Atom+Function  
  ----- ------------  ---------------      ----- ------------  ---------------
    10      2.568027  1 C  pz                39      1.291559  2 O  s          
    74     -1.291559  3 O  s                  7     -1.220712  1 C  pz         
    55     -0.989174  2 O  dxx               58     -0.989174  2 O  dyy        
    90      0.989174  3 O  dxx               93      0.989174  3 O  dyy        
    35     -0.906473  1 C  fzzz              45      0.518840  2 O  pz         
 
 Vector   46  Occ=0.000000D+00  E= 2.455521D+00  Symmetry=a1g
              MO Center= -1.1D-15,  4.3D-16,  6.8D-14, r^2= 2.2D+00
   Bfn.  Coefficient  Atom+Function         Bfn.  Coefficient  Atom+Function  
  ----- ------------  ---------------      ----- ------------  ---------------
    25      4.720492  1 C  dzz               39      2.107661  2 O  s          
    74      2.107661  3 O  s                  4     -1.791011  1 C  s          
    55     -1.774382  2 O  dxx               58     -1.774382  2 O  dyy        
    90     -1.774382  3 O  dxx               93     -1.774382  3 O  dyy        
    38     -1.151257  2 O  s                 73     -1.151257  3 O  s          
 
 Vector   47  Occ=0.000000D+00  E= 2.479644D+00  Symmetry=a1g
              MO Center=  6.5D-18,  3.4D-17, -5.1D-15, r^2= 2.5D+00
   Bfn.  Coefficient  Atom+Function         Bfn.  Coefficient  Atom+Function  
  ----- ------------  ---------------      ----- ------------  ---------------
    39      6.310604  2 O  s                 74      6.310604  3 O  s          
    25     -3.494524  1 C  dzz                4     -2.198834  1 C  s          
    60     -1.568397  2 O  dzz               95     -1.568397  3 O  dzz        
    55     -1.530779  2 O  dxx               58     -1.530779  2 O  dyy        
    90     -1.530779  3 O  dxx               93     -1.530779  3 O  dyy        
 
 Vector   48  Occ=0.000000D+00  E= 2.573539D+00  Symmetry=eu
              MO Center=  6.2D-17, -2.1D-16, -3.3D-17, r^2= 8.4D-01
   Bfn.  Coefficient  Atom+Function         Bfn.  Coefficient  Atom+Function  
  ----- ------------  ---------------      ----- ------------  ---------------
    29      1.894328  1 C  fxyy              27     -1.400168  1 C  fxxy       
    26     -0.631443  1 C  fxxx              32      0.466723  1 C  fyyy       
    64      0.077332  2 O  fxyy              99      0.077332  3 O  fxyy       
    62     -0.057159  2 O  fxxy              97     -0.057159  3 O  fxxy       
    61     -0.025777  2 O  fxxx              96     -0.025777  3 O  fxxx       
 
 Vector   49  Occ=0.000000D+00  E= 2.573539D+00  Symmetry=eu
              MO Center= -1.4D-16, -2.4D-16,  8.7D-18, r^2= 8.4D-01
   Bfn.  Coefficient  Atom+Function         Bfn.  Coefficient  Atom+Function  
  ----- ------------  ---------------      ----- ------------  ---------------
    27      1.894328  1 C  fxxy              29      1.400168  1 C  fxyy       
    32     -0.631443  1 C  fyyy              26     -0.466723  1 C  fxxx       
    62      0.077332  2 O  fxxy              97      0.077332  3 O  fxxy       
    64      0.057159  2 O  fxyy              99      0.057159  3 O  fxyy       
    67     -0.025777  2 O  fyyy             102     -0.025777  3 O  fyyy       
 
 Vector   50  Occ=0.000000D+00  E= 2.704605D+00  Symmetry=a2u
              MO Center= -1.5D-17,  1.3D-17, -1.2D-14, r^2= 3.2D+00
   Bfn.  Coefficient  Atom+Function         Bfn.  Coefficient  Atom+Function  
  ----- ------------  ---------------      ----- ------------  ---------------
    39      8.164828  2 O  s                 74     -8.164828  3 O  s          
    13     -3.361251  1 C  pz                60     -2.395365  2 O  dzz        
    95      2.395365  3 O  dzz               55     -2.326216  2 O  dxx        
    58     -2.326216  2 O  dyy               90      2.326216  3 O  dxx        
    93      2.326216  3 O  dyy               38     -1.261774  2 O  s          
 
 Vector   51  Occ=0.000000D+00  E= 2.825359D+00  Symmetry=b2g
              MO Center=  5.9D-17,  3.0D-16,  2.6D-18, r^2= 7.0D-01
   Bfn.  Coefficient  Atom+Function         Bfn.  Coefficient  Atom+Function  
  ----- ------------  ---------------      ----- ------------  ---------------
    15      2.030459  1 C  dxy               21     -1.139753  1 C  dxy        
    65     -0.229020  2 O  fxyz             100      0.229020  3 O  fxyz       
    56      0.080015  2 O  dxy               91      0.080015  3 O  dxy        
 
 Vector   52  Occ=0.000000D+00  E= 2.825359D+00  Symmetry=b1g
              MO Center= -1.3D-16,  2.1D-16, -1.6D-18, r^2= 7.0D-01
   Bfn.  Coefficient  Atom+Function         Bfn.  Coefficient  Atom+Function  
  ----- ------------  ---------------      ----- ------------  ---------------
    14      1.015229  1 C  dxx               17     -1.015229  1 C  dyy        
    20     -0.569877  1 C  dxx               23      0.569877  1 C  dyy        
    63     -0.114510  2 O  fxxz              68      0.114510  2 O  fyyz       
    98      0.114510  3 O  fxxz             103     -0.114510  3 O  fyyz       
    55      0.040007  2 O  dxx               58     -0.040007  2 O  dyy        
 
 Vector   53  Occ=0.000000D+00  E= 2.848659D+00  Symmetry=eg
              MO Center= -4.7D-16, -7.4D-16,  4.1D-15, r^2= 1.3D+00
   Bfn.  Coefficient  Atom+Function         Bfn.  Coefficient  Atom+Function  
  ----- ------------  ---------------      ----- ------------  ---------------
    18      1.368180  1 C  dyz               24     -1.339520  1 C  dyz        
    44      1.244226  2 O  py                79     -1.244226  3 O  py         
    16      0.967382  1 C  dxz               22     -0.947118  1 C  dxz        
    43      0.879739  2 O  px                78     -0.879739  3 O  px         
    62     -0.495033  2 O  fxxy              67     -0.495033  2 O  fyyy       
 
 Vector   54  Occ=0.000000D+00  E= 2.848659D+00  Symmetry=eg
              MO Center= -3.4D-16,  1.8D-16, -7.6D-15, r^2= 1.3D+00
   Bfn.  Coefficient  Atom+Function         Bfn.  Coefficient  Atom+Function  
  ----- ------------  ---------------      ----- ------------  ---------------
    16      1.368180  1 C  dxz               22     -1.339520  1 C  dxz        
    43      1.244226  2 O  px                78     -1.244226  3 O  px         
    18     -0.967382  1 C  dyz               24      0.947118  1 C  dyz        
    44     -0.879739  2 O  py                79      0.879739  3 O  py         
    61     -0.495033  2 O  fxxx              64     -0.495033  2 O  fxyy       
 
 Vector   55  Occ=0.000000D+00  E= 2.862333D+00  Symmetry=b1u
              MO Center=  7.5D-16,  2.4D-16,  4.2D-17, r^2= 1.2D+00
   Bfn.  Coefficient  Atom+Function         Bfn.  Coefficient  Atom+Function  
  ----- ------------  ---------------      ----- ------------  ---------------
    30      3.979977  1 C  fxyz              56     -0.700970  2 O  dxy        
    91      0.700970  3 O  dxy               65     -0.364876  2 O  fxyz       
   100     -0.364876  3 O  fxyz       
 
 Vector   56  Occ=0.000000D+00  E= 2.862333D+00  Symmetry=b2u
              MO Center= -6.6D-17,  3.3D-16,  3.5D-17, r^2= 1.2D+00
   Bfn.  Coefficient  Atom+Function         Bfn.  Coefficient  Atom+Function  
  ----- ------------  ---------------      ----- ------------  ---------------
    28      1.989989  1 C  fxxz              33     -1.989989  1 C  fyyz       
    55     -0.350485  2 O  dxx               58      0.350485  2 O  dyy        
    90      0.350485  3 O  dxx               93     -0.350485  3 O  dyy        
    63     -0.182438  2 O  fxxz              68      0.182438  2 O  fyyz       
    98     -0.182438  3 O  fxxz             103      0.182438  3 O  fyyz       
 
 Vector   57  Occ=0.000000D+00  E= 3.048864D+00  Symmetry=eu
              MO Center=  8.6D-18, -7.5D-18,  5.2D-15, r^2= 2.4D+00
   Bfn.  Coefficient  Atom+Function         Bfn.  Coefficient  Atom+Function  
  ----- ------------  ---------------      ----- ------------  ---------------
    43      1.941277  2 O  px                78      1.941277  3 O  px         
    44     -1.689499  2 O  py                79     -1.689499  3 O  py         
    66     -0.853152  2 O  fxzz             101     -0.853152  3 O  fxzz       
    31      0.791616  1 C  fxzz              46     -0.788412  2 O  px         
    81     -0.788412  3 O  px                40     -0.749965  2 O  px         
 
 Vector   58  Occ=0.000000D+00  E= 3.048864D+00  Symmetry=eu
              MO Center= -1.1D-17, -1.3D-17, -3.0D-15, r^2= 2.4D+00
   Bfn.  Coefficient  Atom+Function         Bfn.  Coefficient  Atom+Function  
  ----- ------------  ---------------      ----- ------------  ---------------
    44      1.941277  2 O  py                79      1.941277  3 O  py         
    43      1.689499  2 O  px                78      1.689499  3 O  px         
    69     -0.853152  2 O  fyzz             104     -0.853152  3 O  fyzz       
    34      0.791616  1 C  fyzz              47     -0.788412  2 O  py         
    82     -0.788412  3 O  py                41     -0.749965  2 O  py         
 
 Vector   59  Occ=0.000000D+00  E= 3.446931D+00  Symmetry=eu
              MO Center=  5.9D-18, -2.0D-18,  1.5D-15, r^2= 1.6D+00
   Bfn.  Coefficient  Atom+Function         Bfn.  Coefficient  Atom+Function  
  ----- ------------  ---------------      ----- ------------  ---------------
     8      5.060916  1 C  px                31     -4.364968  1 C  fxzz       
    26     -3.028990  1 C  fxxx              29     -3.028990  1 C  fxyy       
     9     -1.752889  1 C  py                34      1.511842  1 C  fyzz       
    27      1.049115  1 C  fxxy              32      1.049115  1 C  fyyy       
    11     -0.750887  1 C  px                57     -0.612918  2 O  dxz        
 
 Vector   60  Occ=0.000000D+00  E= 3.446931D+00  Symmetry=eu
              MO Center= -6.1D-18, -1.8D-17, -4.7D-14, r^2= 1.6D+00
   Bfn.  Coefficient  Atom+Function         Bfn.  Coefficient  Atom+Function  
  ----- ------------  ---------------      ----- ------------  ---------------
     9      5.060916  1 C  py                34     -4.364968  1 C  fyzz       
    27     -3.028990  1 C  fxxy              32     -3.028990  1 C  fyyy       
     8      1.752889  1 C  px                31     -1.511842  1 C  fxzz       
    26     -1.049115  1 C  fxxx              29     -1.049115  1 C  fxyy       
    12     -0.750887  1 C  py                59     -0.612918  2 O  dyz        
 
 Vector   61  Occ=0.000000D+00  E= 3.470878D+00  Symmetry=a1g
              MO Center=  8.4D-18,  2.9D-17,  1.1D-15, r^2= 1.3D+00
   Bfn.  Coefficient  Atom+Function         Bfn.  Coefficient  Atom+Function  
  ----- ------------  ---------------      ----- ------------  ---------------
    25      2.158245  1 C  dzz               19     -1.988461  1 C  dzz        
     2      1.941907  1 C  s                  4      1.499193  1 C  s          
     3     -1.223338  1 C  s                 20     -1.216985  1 C  dxx        
    23     -1.216985  1 C  dyy                1      1.074624  1 C  s          
    55     -0.671308  2 O  dxx               58     -0.671308  2 O  dyy        
 
 Vector   62  Occ=0.000000D+00  E= 3.485467D+00  Symmetry=eg
              MO Center=  4.8D-18, -3.3D-18,  2.3D-15, r^2= 1.8D+00
   Bfn.  Coefficient  Atom+Function         Bfn.  Coefficient  Atom+Function  
  ----- ------------  ---------------      ----- ------------  ---------------
    43      2.379193  2 O  px                78     -2.379193  3 O  px         
    44     -1.627936  2 O  py                79      1.627936  3 O  py         
    22     -1.514668  1 C  dxz               66     -1.094443  2 O  fxzz       
   101      1.094443  3 O  fxzz              24      1.036394  1 C  dyz        
    57     -0.874399  2 O  dxz               92     -0.874399  3 O  dxz        
 
 Vector   63  Occ=0.000000D+00  E= 3.485467D+00  Symmetry=eg
              MO Center=  1.2D-19,  1.7D-19,  4.3D-14, r^2= 1.8D+00
   Bfn.  Coefficient  Atom+Function         Bfn.  Coefficient  Atom+Function  
  ----- ------------  ---------------      ----- ------------  ---------------
    44      2.379193  2 O  py                79     -2.379193  3 O  py         
    43      1.627936  2 O  px                78     -1.627936  3 O  px         
    24     -1.514668  1 C  dyz               69     -1.094443  2 O  fyzz       
   104      1.094443  3 O  fyzz              22     -1.036394  1 C  dxz        
    59     -0.874399  2 O  dyz               94     -0.874399  3 O  dyz        
 
 Vector   64  Occ=0.000000D+00  E= 4.044097D+00  Symmetry=eu
              MO Center=  8.8D-16, -7.4D-16,  4.4D-16, r^2= 1.6D+00
   Bfn.  Coefficient  Atom+Function         Bfn.  Coefficient  Atom+Function  
  ----- ------------  ---------------      ----- ------------  ---------------
     8      3.042314  1 C  px                 9     -2.833430  1 C  py         
    26     -1.822489  1 C  fxxx              29     -1.822489  1 C  fxyy       
    27      1.697358  1 C  fxxy              32      1.697358  1 C  fyyy       
    43     -1.646250  2 O  px                78     -1.646250  3 O  px         
    44      1.533220  2 O  py                79      1.533220  3 O  py         
 
 Vector   65  Occ=0.000000D+00  E= 4.044097D+00  Symmetry=eu
              MO Center=  1.5D-16,  1.6D-16,  5.3D-16, r^2= 1.6D+00
   Bfn.  Coefficient  Atom+Function         Bfn.  Coefficient  Atom+Function  
  ----- ------------  ---------------      ----- ------------  ---------------
     9      3.042314  1 C  py                 8      2.833430  1 C  px         
    27     -1.822489  1 C  fxxy              32     -1.822489  1 C  fyyy       
    26     -1.697358  1 C  fxxx              29     -1.697358  1 C  fxyy       
    44     -1.646250  2 O  py                79     -1.646250  3 O  py         
    43     -1.533220  2 O  px                78     -1.533220  3 O  px         
 
 Vector   66  Occ=0.000000D+00  E= 4.434565D+00  Symmetry=a1g
              MO Center=  6.5D-18, -1.5D-17, -6.8D-14, r^2= 1.7D+00
   Bfn.  Coefficient  Atom+Function         Bfn.  Coefficient  Atom+Function  
  ----- ------------  ---------------      ----- ------------  ---------------
    25      8.243806  1 C  dzz                3      3.642249  1 C  s          
    45      3.243653  2 O  pz                80     -3.243653  3 O  pz         
     2     -3.072904  1 C  s                 39     -1.858468  2 O  s          
    74     -1.858468  3 O  s                  1     -1.783096  1 C  s          
     4     -1.744774  1 C  s                 20      1.740004  1 C  dxx        
 
 Vector   67  Occ=0.000000D+00  E= 4.650896D+00  Symmetry=a2u
              MO Center= -5.3D-19,  2.4D-18,  2.5D-14, r^2= 1.4D+00
   Bfn.  Coefficient  Atom+Function         Bfn.  Coefficient  Atom+Function  
  ----- ------------  ---------------      ----- ------------  ---------------
    10      3.786605  1 C  pz                28     -2.895357  1 C  fxxz       
    33     -2.895357  1 C  fyyz              35      1.055899  1 C  fzzz       
    37     -0.749056  2 O  s                 72      0.749056  3 O  s          
    39     -0.700735  2 O  s                 74      0.700735  3 O  s          
    70      0.664578  2 O  fzzz             105      0.664578  3 O  fzzz       
 
 Vector   68  Occ=0.000000D+00  E= 5.048804D+00  Symmetry=a2u
              MO Center= -9.7D-19, -5.7D-18, -5.6D-15, r^2= 2.5D+00
   Bfn.  Coefficient  Atom+Function         Bfn.  Coefficient  Atom+Function  
  ----- ------------  ---------------      ----- ------------  ---------------
    10     14.112997  1 C  pz                28     -5.239183  1 C  fxxz       
    33     -5.239183  1 C  fyyz              39     -3.971283  2 O  s          
    74      3.971283  3 O  s                 45      3.057569  2 O  pz         
    80      3.057569  3 O  pz                35     -2.172163  1 C  fzzz       
    48      1.710935  2 O  pz                83      1.710935  3 O  pz         
 
 Vector   69  Occ=0.000000D+00  E= 5.056058D+00  Symmetry=eg
              MO Center= -1.5D-17, -9.0D-17,  1.2D-13, r^2= 1.9D+00
   Bfn.  Coefficient  Atom+Function         Bfn.  Coefficient  Atom+Function  
  ----- ------------  ---------------      ----- ------------  ---------------
    64      1.653854  2 O  fxyy              99     -1.653854  3 O  fxyy       
    61     -0.551285  2 O  fxxx              96      0.551285  3 O  fxxx       
    62      0.277970  2 O  fxxy              97     -0.277970  3 O  fxxy       
    67     -0.092657  2 O  fyyy             102      0.092657  3 O  fyyy       
 
 Vector   70  Occ=0.000000D+00  E= 5.056058D+00  Symmetry=eg
              MO Center=  1.7D-19,  3.5D-19, -4.4D-15, r^2= 1.9D+00
   Bfn.  Coefficient  Atom+Function         Bfn.  Coefficient  Atom+Function  
  ----- ------------  ---------------      ----- ------------  ---------------
    62      1.653854  2 O  fxxy              97     -1.653854  3 O  fxxy       
    67     -0.551285  2 O  fyyy             102      0.551285  3 O  fyyy       
    64     -0.277970  2 O  fxyy              99      0.277970  3 O  fxyy       
    61      0.092657  2 O  fxxx              96     -0.092657  3 O  fxxx       
 
 Vector   71  Occ=0.000000D+00  E= 5.110546D+00  Symmetry=eu
              MO Center= -5.8D-17, -2.3D-16, -1.2D-13, r^2= 1.9D+00
   Bfn.  Coefficient  Atom+Function         Bfn.  Coefficient  Atom+Function  
  ----- ------------  ---------------      ----- ------------  ---------------
    64      1.631400  2 O  fxyy              99      1.631400  3 O  fxyy       
    61     -0.543800  2 O  fxxx              96     -0.543800  3 O  fxxx       
    62      0.405793  2 O  fxxy              97      0.405793  3 O  fxxy       
    29     -0.338707  1 C  fxyy              67     -0.135264  2 O  fyyy       
   102     -0.135264  3 O  fyyy              26      0.112903  1 C  fxxx       
 
 Vector   72  Occ=0.000000D+00  E= 5.110546D+00  Symmetry=eu
              MO Center=  8.6D-19,  4.1D-19,  4.0D-15, r^2= 1.9D+00
   Bfn.  Coefficient  Atom+Function         Bfn.  Coefficient  Atom+Function  
  ----- ------------  ---------------      ----- ------------  ---------------
    62      1.631400  2 O  fxxy              97      1.631400  3 O  fxxy       
    67     -0.543800  2 O  fyyy             102     -0.543800  3 O  fyyy       
    64     -0.405793  2 O  fxyy              99     -0.405793  3 O  fxyy       
    27     -0.338707  1 C  fxxy              61      0.135264  2 O  fxxx       
    96      0.135264  3 O  fxxx              32      0.112903  1 C  fyyy       
 
 Vector   73  Occ=0.000000D+00  E= 5.149800D+00  Symmetry=b2g
              MO Center=  9.0D-17,  2.1D-16,  4.4D-16, r^2= 1.8D+00
   Bfn.  Coefficient  Atom+Function         Bfn.  Coefficient  Atom+Function  
  ----- ------------  ---------------      ----- ------------  ---------------
    65      2.750178  2 O  fxyz             100     -2.750178  3 O  fxyz       
    15      0.302439  1 C  dxy               50     -0.144006  2 O  dxy        
    85     -0.144006  3 O  dxy               21      0.112954  1 C  dxy        
 
 Vector   74  Occ=0.000000D+00  E= 5.149800D+00  Symmetry=b1g
              MO Center=  7.9D-17,  4.2D-17, -2.5D-17, r^2= 1.8D+00
   Bfn.  Coefficient  Atom+Function         Bfn.  Coefficient  Atom+Function  
  ----- ------------  ---------------      ----- ------------  ---------------
    63      1.375089  2 O  fxxz              68     -1.375089  2 O  fyyz       
    98     -1.375089  3 O  fxxz             103      1.375089  3 O  fyyz       
    14      0.151219  1 C  dxx               17     -0.151219  1 C  dyy        
    49     -0.072002  2 O  dxx               52      0.072002  2 O  dyy        
    84     -0.072002  3 O  dxx               87      0.072002  3 O  dyy        
 
 Vector   75  Occ=0.000000D+00  E= 5.404083D+00  Symmetry=a2u
              MO Center= -7.4D-18, -1.3D-17,  1.8D-15, r^2= 1.9D+00
   Bfn.  Coefficient  Atom+Function         Bfn.  Coefficient  Atom+Function  
  ----- ------------  ---------------      ----- ------------  ---------------
    35      4.768331  1 C  fzzz              10     -3.654608  1 C  pz         
    28      2.686283  1 C  fxxz              33      2.686283  1 C  fyyz       
    39      1.929834  2 O  s                 74     -1.929834  3 O  s          
    60     -1.632275  2 O  dzz               95      1.632275  3 O  dzz        
    45      1.530934  2 O  pz                80      1.530934  3 O  pz         
 
 Vector   76  Occ=0.000000D+00  E= 5.692249D+00  Symmetry=b2u
              MO Center=  8.5D-19, -4.8D-18,  6.5D-16, r^2= 1.6D+00
   Bfn.  Coefficient  Atom+Function         Bfn.  Coefficient  Atom+Function  
  ----- ------------  ---------------      ----- ------------  ---------------
    63      1.353988  2 O  fxxz              68     -1.353988  2 O  fyyz       
    98      1.353988  3 O  fxxz             103     -1.353988  3 O  fyyz       
    28      1.016275  1 C  fxxz              33     -1.016275  1 C  fyyz       
    49     -0.265322  2 O  dxx               52      0.265322  2 O  dyy        
    84      0.265322  3 O  dxx               87     -0.265322  3 O  dyy        
 
 Vector   77  Occ=0.000000D+00  E= 5.692250D+00  Symmetry=b1u
              MO Center=  2.3D-18,  5.5D-17,  3.3D-16, r^2= 1.6D+00
   Bfn.  Coefficient  Atom+Function         Bfn.  Coefficient  Atom+Function  
  ----- ------------  ---------------      ----- ------------  ---------------
    65      2.707979  2 O  fxyz             100      2.707979  3 O  fxyz       
    30      2.032554  1 C  fxyz              50     -0.530641  2 O  dxy        
    85      0.530641  3 O  dxy        
 
 Vector   78  Occ=0.000000D+00  E= 5.970826D+00  Symmetry=eg
              MO Center= -4.8D-17,  2.9D-17, -2.2D-16, r^2= 1.5D+00
   Bfn.  Coefficient  Atom+Function         Bfn.  Coefficient  Atom+Function  
  ----- ------------  ---------------      ----- ------------  ---------------
    69      1.456051  2 O  fyzz             104     -1.456051  3 O  fyzz       
    18     -1.058210  1 C  dyz               66     -0.946509  2 O  fxzz       
   101      0.946509  3 O  fxzz              16      0.687891  1 C  dxz        
    53     -0.552726  2 O  dyz               88     -0.552726  3 O  dyz        
    24      0.428462  1 C  dyz               51      0.359300  2 O  dxz        
 
 Vector   79  Occ=0.000000D+00  E= 5.970826D+00  Symmetry=eg
              MO Center= -4.1D-18, -2.1D-17,  6.0D-16, r^2= 1.5D+00
   Bfn.  Coefficient  Atom+Function         Bfn.  Coefficient  Atom+Function  
  ----- ------------  ---------------      ----- ------------  ---------------
    66      1.456051  2 O  fxzz             101     -1.456051  3 O  fxzz       
    16     -1.058210  1 C  dxz               69      0.946509  2 O  fyzz       
   104     -0.946509  3 O  fyzz              18     -0.687891  1 C  dyz        
    51     -0.552726  2 O  dxz               86     -0.552726  3 O  dxz        
    22      0.428462  1 C  dxz               53     -0.359300  2 O  dyz        
 
 Vector   80  Occ=0.000000D+00  E= 6.238621D+00  Symmetry=b1g
              MO Center= -1.8D-16,  1.8D-16, -3.3D-13, r^2= 1.8D+00
   Bfn.  Coefficient  Atom+Function         Bfn.  Coefficient  Atom+Function  
  ----- ------------  ---------------      ----- ------------  ---------------
    49      0.717561  2 O  dxx               52     -0.717561  2 O  dyy        
    84      0.717561  3 O  dxx               87     -0.717561  3 O  dyy        
    55     -0.411835  2 O  dxx               58      0.411835  2 O  dyy        
    90     -0.411835  3 O  dxx               93      0.411835  3 O  dyy        
    63      0.172691  2 O  fxxz              68     -0.172691  2 O  fyyz       
 
 Vector   81  Occ=0.000000D+00  E= 6.238621D+00  Symmetry=b2g
              MO Center= -2.0D-17, -3.1D-17, -3.1D-13, r^2= 1.8D+00
   Bfn.  Coefficient  Atom+Function         Bfn.  Coefficient  Atom+Function  
  ----- ------------  ---------------      ----- ------------  ---------------
    50      1.435123  2 O  dxy               85      1.435123  3 O  dxy        
    56     -0.823671  2 O  dxy               91     -0.823671  3 O  dxy        
    65      0.345385  2 O  fxyz             100     -0.345385  3 O  fxyz       
    21      0.322411  1 C  dxy        
 
 Vector   82  Occ=0.000000D+00  E= 6.246479D+00  Symmetry=b1u
              MO Center= -5.6D-19,  4.2D-17,  3.1D-13, r^2= 1.9D+00
   Bfn.  Coefficient  Atom+Function         Bfn.  Coefficient  Atom+Function  
  ----- ------------  ---------------      ----- ------------  ---------------
    30      1.384010  1 C  fxyz              50      1.333964  2 O  dxy        
    85     -1.333964  3 O  dxy               65      1.233183  2 O  fxyz       
   100      1.233183  3 O  fxyz              56     -0.869448  2 O  dxy        
    91      0.869448  3 O  dxy        
 
 Vector   83  Occ=0.000000D+00  E= 6.246480D+00  Symmetry=b2u
              MO Center= -4.7D-18, -1.4D-17,  3.3D-13, r^2= 1.9D+00
   Bfn.  Coefficient  Atom+Function         Bfn.  Coefficient  Atom+Function  
  ----- ------------  ---------------      ----- ------------  ---------------
    28      0.692007  1 C  fxxz              33     -0.692007  1 C  fyyz       
    49      0.666982  2 O  dxx               52     -0.666982  2 O  dyy        
    84     -0.666982  3 O  dxx               87      0.666982  3 O  dyy        
    63      0.616594  2 O  fxxz              68     -0.616594  2 O  fyyz       
    98      0.616594  3 O  fxxz             103     -0.616594  3 O  fyyz       
 
 Vector   84  Occ=0.000000D+00  E= 6.366425D+00  Symmetry=a1g
              MO Center=  1.6D-18,  1.4D-18, -3.0D-15, r^2= 1.8D+00
   Bfn.  Coefficient  Atom+Function         Bfn.  Coefficient  Atom+Function  
  ----- ------------  ---------------      ----- ------------  ---------------
    39      2.387658  2 O  s                 74      2.387658  3 O  s          
    45      1.855721  2 O  pz                80     -1.855721  3 O  pz         
    63     -1.457907  2 O  fxxz              68     -1.457907  2 O  fyyz       
    98      1.457907  3 O  fxxz             103      1.457907  3 O  fyyz       
    48     -1.142357  2 O  pz                83      1.142357  3 O  pz         
 
 Vector   85  Occ=0.000000D+00  E= 6.472824D+00  Symmetry=eu
              MO Center=  9.7D-19,  3.7D-18,  2.3D-14, r^2= 2.0D+00
   Bfn.  Coefficient  Atom+Function         Bfn.  Coefficient  Atom+Function  
  ----- ------------  ---------------      ----- ------------  ---------------
    53      1.380765  2 O  dyz               88     -1.380765  3 O  dyz        
    59     -1.101525  2 O  dyz               94      1.101525  3 O  dyz        
    69      0.846150  2 O  fyzz             104      0.846150  3 O  fyzz       
     9     -0.703076  1 C  py                44     -0.559861  2 O  py         
    79     -0.559861  3 O  py                51      0.392217  2 O  dxz        
 
 Vector   86  Occ=0.000000D+00  E= 6.472824D+00  Symmetry=eu
              MO Center= -1.9D-18,  8.3D-19, -4.8D-15, r^2= 2.0D+00
   Bfn.  Coefficient  Atom+Function         Bfn.  Coefficient  Atom+Function  
  ----- ------------  ---------------      ----- ------------  ---------------
    51      1.380765  2 O  dxz               86     -1.380765  3 O  dxz        
    57     -1.101525  2 O  dxz               92      1.101525  3 O  dxz        
    66      0.846150  2 O  fxzz             101      0.846150  3 O  fxzz       
     8     -0.703076  1 C  px                43     -0.559861  2 O  px         
    78     -0.559861  3 O  px                53     -0.392217  2 O  dyz        
 
 Vector   87  Occ=0.000000D+00  E= 6.481036D+00  Symmetry=a2u
              MO Center=  7.7D-19, -2.4D-20, -9.1D-15, r^2= 2.2D+00
   Bfn.  Coefficient  Atom+Function         Bfn.  Coefficient  Atom+Function  
  ----- ------------  ---------------      ----- ------------  ---------------
    10      7.118492  1 C  pz                35     -4.801354  1 C  fzzz       
    28     -3.463187  1 C  fxxz              33     -3.463187  1 C  fyyz       
    39     -3.382605  2 O  s                 74      3.382605  3 O  s          
     7     -2.078776  1 C  pz                70     -1.797444  2 O  fzzz       
   105     -1.797444  3 O  fzzz              60      1.729968  2 O  dzz        
 
 Vector   88  Occ=0.000000D+00  E= 6.515070D+00  Symmetry=eg
              MO Center= -1.8D-17, -4.5D-17,  2.8D-14, r^2= 2.3D+00
   Bfn.  Coefficient  Atom+Function         Bfn.  Coefficient  Atom+Function  
  ----- ------------  ---------------      ----- ------------  ---------------
    44      2.705068  2 O  py                79     -2.705068  3 O  py         
    69     -2.212425  2 O  fyzz             104      2.212425  3 O  fyzz       
    62     -1.565061  2 O  fxxy              67     -1.565061  2 O  fyyy       
    97      1.565061  3 O  fxxy             102      1.565061  3 O  fyyy       
    53     -0.916131  2 O  dyz               88     -0.916131  3 O  dyz        
 
 Vector   89  Occ=0.000000D+00  E= 6.515070D+00  Symmetry=eg
              MO Center= -3.8D-18, -1.4D-18,  2.9D-15, r^2= 2.3D+00
   Bfn.  Coefficient  Atom+Function         Bfn.  Coefficient  Atom+Function  
  ----- ------------  ---------------      ----- ------------  ---------------
    43      2.705068  2 O  px                78     -2.705068  3 O  px         
    66     -2.212425  2 O  fxzz             101      2.212425  3 O  fxzz       
    61     -1.565061  2 O  fxxx              64     -1.565061  2 O  fxyy       
    96      1.565061  3 O  fxxx              99      1.565061  3 O  fxyy       
    51     -0.916131  2 O  dxz               86     -0.916131  3 O  dxz        
 
 Vector   90  Occ=0.000000D+00  E= 6.832178D+00  Symmetry=a1g
              MO Center=  7.2D-18,  8.5D-18, -6.1D-16, r^2= 2.2D+00
   Bfn.  Coefficient  Atom+Function         Bfn.  Coefficient  Atom+Function  
[...]
    39      3.688422  2 O  s                 74      3.688422  3 O  s          
    36      2.731505  2 O  s                 71      2.731505  3 O  s          
    49     -2.501255  2 O  dxx               52     -2.501255  2 O  dyy        
    84     -2.501255  3 O  dxx               87     -2.501255  3 O  dyy        
 
 Vector  103  Occ=0.000000D+00  E= 1.616907D+01  Symmetry=a2u
              MO Center=  2.0D-19, -1.0D-18,  3.4D-14, r^2= 1.7D+00
   Bfn.  Coefficient  Atom+Function         Bfn.  Coefficient  Atom+Function  
  ----- ------------  ---------------      ----- ------------  ---------------
    37      5.599683  2 O  s                 72     -5.599683  3 O  s          
    39      3.275239  2 O  s                 74     -3.275239  3 O  s          
    60     -2.509915  2 O  dzz               95      2.509915  3 O  dzz        
    49     -2.306094  2 O  dxx               52     -2.306094  2 O  dyy        
    54     -2.308946  2 O  dzz               84      2.306094  3 O  dxx        
 
 Vector  104  Occ=0.000000D+00  E= 1.877258D+01  Symmetry=a1g
              MO Center=  2.4D-18, -2.5D-18, -8.9D-14, r^2= 1.9D+00
   Bfn.  Coefficient  Atom+Function         Bfn.  Coefficient  Atom+Function  
  ----- ------------  ---------------      ----- ------------  ---------------
     2     16.524013  1 C  s                 45     12.631192  2 O  pz         
    80    -12.631192  3 O  pz                25     12.311110  1 C  dzz        
     1      8.266706  1 C  s                 39     -7.729702  2 O  s          
    74     -7.729702  3 O  s                 63     -4.620274  2 O  fxxz       
    68     -4.620274  2 O  fyyz              98      4.620274  3 O  fxxz       
 
 Vector  105  Occ=0.000000D+00  E= 2.263147D+01  Symmetry=a2u
              MO Center=  2.5D-18, -5.8D-18, -5.5D-15, r^2= 1.9D+00
   Bfn.  Coefficient  Atom+Function         Bfn.  Coefficient  Atom+Function  
  ----- ------------  ---------------      ----- ------------  ---------------
    37     14.174716  2 O  s                 72    -14.174716  3 O  s          
    35    -11.564630  1 C  fzzz              36      7.206824  2 O  s          
    71     -7.206824  3 O  s                 39      6.405479  2 O  s          
    74     -6.405479  3 O  s                 45     -6.343447  2 O  pz         
    80     -6.343447  3 O  pz                10     -5.019568  1 C  pz         
 

   alpha - beta orbital overlaps 
   ----------------------------- 


   alpha      1      2      3      4      5      6      7      8      9     10
    beta      1      2      3      4      5      6      7      8      9     11
 overlap   1.000  1.000  1.000  1.000  1.000  1.000  1.000  0.938  0.938  0.848


   alpha     11     12     13     14     15     16     17     18     19     20
    beta     10     12     13     14     15     17     16     18     19     20
 overlap   0.848  0.785  0.785  1.000  1.000  0.945  0.945  1.000  1.000  1.000


   alpha     21     22     23     24     25     26     27     28     29     30
    beta     21     22     23     24     25     26     27     28     29     30
 overlap   0.768  0.768  1.000  1.000  0.763  0.763  1.000  1.000  0.822  0.822


   alpha     31     32     33     34     35     36     37     38     39     40
    beta     31     32     33     34     36     35     37     38     39     41
 overlap   1.000  1.000  1.000  1.000  0.885  0.885  1.000  1.000  1.000  0.999


   alpha     41     42     43     44     45     46     47     48     49     50
    beta     40     43     42     44     45     46     47     48     49     50
 overlap   0.999  0.990  0.990  1.000  1.000  1.000  0.996  0.996  1.000  1.000


   alpha     51     52     53     54     55     56     57     58     59     60
    beta     51     52     54     53     55     56     58     57     59     60
 overlap   1.000  1.000  0.783  0.783  1.000  1.000  0.763  0.763  0.898  0.898


   alpha     61     62     63     64     65     66     67     68     69     70
    beta     61     63     62     65     64     66     67     68     70     69
 overlap   1.000  0.885  0.885  0.919  0.919  1.000  1.000  1.000  0.911  0.911


   alpha     71     72     73     74     75     76     77     78     79     80
    beta     72     71     73     74     75     76     77     79     78     80
 overlap   0.724  0.724  1.000  1.000  1.000  1.000  1.000  0.958  0.958  1.000


   alpha     81     82     83     84     85     86     87     88     89     90
    beta     81     82     83     84     85     86     88     87     89     91
 overlap   1.000  1.000  1.000  1.000  0.973  0.973  0.962  0.962  1.000  0.993


   alpha     91     92     93     94     95     96     97     98     99    100
    beta     90     92     93     94     95     96     97     98     99    100
 overlap   0.993  1.000  1.000  1.000  0.997  0.997  0.790  0.790  1.000  1.000


   alpha    101    102    103    104    105
    beta    101    102    103    104    105
 overlap   1.000  1.000  1.000  1.000  1.000

     --------------------------
     Expectation value of S2:  
     --------------------------
      <S2> =     -0.0000 (Exact =     0.0000)
 

 center of mass
 --------------
 x =   0.00000000 y =   0.00000000 z =   0.00000000

 moments of inertia (a.u.)
 ------------------
         153.715010342321           0.000000000000           0.000000000000
           0.000000000000         153.715010342321           0.000000000000
           0.000000000000           0.000000000000           0.000000000000
 
     Multipole analysis of the density
     ---------------------------------
 
     L   x y z        total         alpha         beta         nuclear
     -   - - -        -----         -----         ----         -------
     0   0 0 0     -0.000000    -11.000000    -11.000000     22.000000
 
     1   1 0 0      0.000000      0.000000      0.000000      0.000000
     1   0 1 0     -0.000000     -0.000000      0.000000      0.000000
     1   0 0 1     -0.000000     -0.000000     -0.000000      0.000000
 
     2   2 0 0    -10.958597     -5.479299     -5.479299      0.000000
     2   1 1 0      0.000000      0.000000     -0.000000      0.000000
     2   1 0 1     -0.000000     -0.000000     -0.000000      0.000000
     2   0 2 0    -10.958597     -5.479299     -5.479299      0.000000
     2   0 1 1      0.000000      0.000000      0.000000      0.000000
     2   0 0 2    -14.264262    -45.573113    -45.573113     76.881963
 
 Line search: 
     step= 1.00 grad=-2.7D-09 hess=-8.2D-09 energy=   -188.662793 mode=accept  
 new step= 1.00                   predicted energy=   -188.662793

          --------
          Step   3
          --------
 
 
                          Geometry "geometry" -> "start"
                          ------------------------------
 
 Output coordinates in angstroms (scale by  1.889725989 to convert to a.u.)
 
  No.       Tag          Charge          X              Y              Z
 ---- ---------------- ---------- -------------- -------------- --------------
    1 C                    6.0000     0.00000000     0.00000000     0.00000000
    2 O                    8.0000     0.00000000     0.00000000     1.15998776
    3 O                    8.0000     0.00000000     0.00000000    -1.15998776
 
      Atomic Mass 
      ----------- 
 
      C                 12.000000
      O                 15.994910
 

 Effective nuclear repulsion energy (a.u.)      58.3925886221

            Nuclear Dipole moment (a.u.) 
            ----------------------------
        X                 Y               Z
 ---------------- ---------------- ----------------
     0.0000000000     0.0000000000     0.0000000000
 
      Symmetry information
      --------------------
 
 Group name             D4h       
 Group number             28
 Group order              16
 No. of unique centers     2
 
      Symmetry unique atoms
 
     1    2
 
 
                                 NWChem DFT Module
                                 -----------------
 
 
                              co2_cc-pVTZ_singlet_opt
 
 


 Summary of "ao basis" -> "ao basis" (cartesian)
 ------------------------------------------------------------------------------
       Tag                 Description            Shells   Functions and Types
 ---------------- ------------------------------  ------  ---------------------
 C                          cc-pVTZ                 10       35   4s3p2d1f
 O                          cc-pVTZ                 10       35   4s3p2d1f


      Symmetry analysis of basis
      --------------------------
 
        a1g        21
        a1u         0
        a2g         0
        a2u        18
        b1g         5
        b1u         4
        b2g         5
        b2u         4
        eg         20
        eu         28
 

  The DFT is already converged 

         Total DFT energy =   -188.662792904933

 
            General Information
            -------------------
          SCF calculation type: DFT
          Wavefunction type:  spin polarized.
          No. of atoms     :     3
          No. of electrons :    22
           Alpha electrons :    11
            Beta electrons :    11
          Charge           :     0
          Spin multiplicity:     1
          Use of symmetry is: on ; symmetry adaption is: on 
          Maximum number of iterations: 300
          This is a Direct SCF calculation.
          AO basis - number of functions:   105
                     number of shells:    30
          Convergence on energy requested:  1.00D-07
          Convergence on density requested:  1.00D-06
          Convergence on gradient requested:  5.00D-04
 
              XC Information
              --------------
                         B3LYP Method XC Potential
                     Hartree-Fock (Exact) Exchange  0.200          
                        Slater Exchange Functional  0.800 local    
                    Becke 1988 Exchange Functional  0.720 non-local
              Lee-Yang-Parr Correlation Functional  0.810          
                  VWN I RPA Correlation Functional  0.190 local    
 
             Grid Information
             ----------------
          Grid used for XC integration:  huge      
          Radial quadrature: Mura-Knowles        
          Angular quadrature: Lebedev. 
          Tag              B.-S. Rad. Rad. Pts. Rad. Cut. Ang. Pts.
          ---              ---------- --------- --------- ---------
          C                   0.70      300           7.0      1454
          O                   0.60      300           8.0      1454
          Grid pruning is: on 
          Number of quadrature shells:   600
          Spatial weights used:  Erf1
 
          Convergence Information
          -----------------------
          Convergence aids based upon iterative change in 
          total energy or number of iterations. 
          Levelshifting, if invoked, occurs when the 
          HOMO/LUMO gap drops below (HL_TOL):  1.00D-02
          DIIS, if invoked, will attempt to extrapolate 
          using up to (NFOCK): 10 stored Fock matrices.

                    Damping( 0%)  Levelshifting(0.5)       DIIS
                  --------------- ------------------- ---------------
          dE  on:    start            ASAP                start   
          dE off:    2 iters        300 iters           300 iters 

 
      Screening Tolerance Information
      -------------------------------
          Density screening/tol_rho:  1.00D-10
          AO Gaussian exp screening on grid/accAOfunc:  16
          CD Gaussian exp screening on grid/accCDfunc:  20
          XC Gaussian exp screening on grid/accXCfunc:  20
          Schwarz screening/accCoul:  1.00D-08

  texas integral default override: limxmem =             150000000
  texas integral default override: limxmem =             150000000
 
 
                            NWChem DFT Gradient Module
                            --------------------------
 
 
                              co2_cc-pVTZ_singlet_opt
 
 

  charge          =   0.00
  wavefunction    = open shell

  Using symmetry
  texas integral default override: limxmem =             150000000
  texas integral default override: limxmem =             150000000


                         DFT ENERGY GRADIENTS

    atom               coordinates                        gradient
                 x          y          z           x          y          z
   1 C       0.000000   0.000000   0.000000    0.000000   0.000000  -0.000000
   2 O       0.000000   0.000000   2.192059    0.000000   0.000000  -0.000012
   3 O       0.000000   0.000000  -2.192059    0.000000  -0.000000   0.000012
 
                 ----------------------------------------
                 |  Time  |  1-e(secs)   |  2-e(secs)   |
                 ----------------------------------------
                 |  CPU   |       0.00   |       0.21   |
                 ----------------------------------------
                 |  WALL  |       0.00   |       0.21   |
                 ----------------------------------------

  Step       Energy      Delta E   Gmax     Grms     Xrms     Xmax   Walltime
  ---- ---------------- -------- -------- -------- -------- -------- --------
@    3    -188.66279290 -1.1D-08  0.00001  0.00001  0.00002  0.00003     16.2
                                     ok       ok       ok       ok  


      ----------------------
      Optimization converged
      ----------------------


  Step       Energy      Delta E   Gmax     Grms     Xrms     Xmax   Walltime
  ---- ---------------- -------- -------- -------- -------- -------- --------
@    3    -188.66279290 -1.1D-08  0.00001  0.00001  0.00002  0.00003     16.2
                                     ok       ok       ok       ok  

 
 
                          Geometry "geometry" -> "start"
                          ------------------------------
 
 Output coordinates in angstroms (scale by  1.889725989 to convert to a.u.)
 
  No.       Tag          Charge          X              Y              Z
 ---- ---------------- ---------- -------------- -------------- --------------
    1 C                    6.0000     0.00000000     0.00000000     0.00000000
    2 O                    8.0000     0.00000000     0.00000000     1.15998776
    3 O                    8.0000     0.00000000     0.00000000    -1.15998776
 
      Atomic Mass 
      ----------- 
 
      C                 12.000000
      O                 15.994910
 

 Effective nuclear repulsion energy (a.u.)      58.3925886221

            Nuclear Dipole moment (a.u.) 
            ----------------------------
        X                 Y               Z
 ---------------- ---------------- ----------------
     0.0000000000     0.0000000000     0.0000000000
 
      Symmetry information
      --------------------
 
 Group name             D4h       
 Group number             28
 Group order              16
 No. of unique centers     2
 
      Symmetry unique atoms
 
     1    2
 
 ==============================================================================
                                internuclear distances
 ------------------------------------------------------------------------------
       center one      |      center two      | atomic units |  angstroms
 ------------------------------------------------------------------------------
    2 O                |   1 C                |     2.19206  |     1.15999
    3 O                |   1 C                |     2.19206  |     1.15999
 ------------------------------------------------------------------------------
                         number of included internuclear distances:          2
 ==============================================================================



 ==============================================================================
                                 internuclear angles
 ------------------------------------------------------------------------------
        center 1       |       center 2       |       center 3       |  degrees
 ------------------------------------------------------------------------------
    2 O                |   1 C                |   3 O                |   180.00
 ------------------------------------------------------------------------------
                            number of included internuclear angles:          1
 ==============================================================================




 Task  times  cpu:        9.2s     wall:       13.8s
 
 
                                NWChem Input Module
                                -------------------
 
 
 Summary of allocated global arrays
-----------------------------------
  No active global arrays



                         GA Statistics for process    0
                         ------------------------------

       create   destroy   get      put      acc     scatter   gather  read&inc
calls: 1601     1601     3.82e+04 8899     2629        0        0     1132     
number of processes/call 4.45e+01 7.84e+01 6.80e+01 0.00e+00 0.00e+00
bytes total:             2.46e+08 2.44e+07 1.22e+08 0.00e+00 0.00e+00 9.06e+03
bytes remote:            2.15e+08 1.44e+07 1.06e+08 0.00e+00 0.00e+00 0.00e+00
Max memory consumed for GA by this process: 617400 bytes
 
MA_summarize_allocated_blocks: starting scan ...
MA_summarize_allocated_blocks: scan completed: 0 heap blocks, 0 stack blocks
MA usage statistics:

	allocation statistics:
					      heap	     stack
					      ----	     -----
	current number of blocks	         0	         0
	maximum number of blocks	        27	        55
	current total bytes		         0	         0
	maximum total bytes		 250615488	 101706376
	maximum total K-bytes		    250616	    101707
	maximum total M-bytes		       251	       102
 
 
                                     CITATION
                                     --------
                Please cite the following reference when publishing
                           results obtained with NWChem:
 
                 M. Valiev, E.J. Bylaska, N. Govind, K. Kowalski,
              T.P. Straatsma, H.J.J. van Dam, D. Wang, J. Nieplocha,
                        E. Apra, T.L. Windus, W.A. de Jong
                 "NWChem: a comprehensive and scalable open-source
                  solution for large scale molecular simulations"
                      Comput. Phys. Commun. 181, 1477 (2010)
                           doi:10.1016/j.cpc.2010.04.018
 
                                      AUTHORS
                                      -------
          E. Apra, E. J. Bylaska, W. A. de Jong, N. Govind, K. Kowalski,
       T. P. Straatsma, M. Valiev, H. J. J. van Dam, D. Wang, T. L. Windus,
        J. Hammond, J. Autschbach, K. Bhaskaran-Nair, J. Brabec, K. Lopata,
    S. A. Fischer, S. Krishnamoorthy, M. Jacquelin, W. Ma, M. Klemm, O. Villa,
      Y. Chen, V. Anisimov, F. Aquino, S. Hirata, M. T. Hackler, V. Konjkov,
            D. Mejia-Rodriguez, T. Risthaus, M. Malagoli, A. Marenich,
   A. Otero-de-la-Roza, J. Mullin, P. Nichols, R. Peverati, J. Pittner, Y. Zhao,
        P.-D. Fan, A. Fonari, M. J. Williamson, R. J. Harrison, J. R. Rehr,
      M. Dupuis, D. Silverstein, D. M. A. Smith, J. Nieplocha, V. Tipparaju,
    M. Krishnan, B. E. Van Kuiken, A. Vazquez-Mayagoitia, L. Jensen, M. Swart,
      Q. Wu, T. Van Voorhis, A. A. Auer, M. Nooijen, L. D. Crosby, E. Brown,
      G. Cisneros, G. I. Fann, H. Fruchtl, J. Garza, K. Hirao, R. A. Kendall,
      J. A. Nichols, K. Tsemekhman, K. Wolinski, J. Anchell, D. E. Bernholdt,
      P. Borowski, T. Clark, D. Clerc, H. Dachsel, M. J. O. Deegan, K. Dyall,
    D. Elwood, E. Glendening, M. Gutowski, A. C. Hess, J. Jaffe, B. G. Johnson,
     J. Ju, R. Kobayashi, R. Kutteh, Z. Lin, R. Littlefield, X. Long, B. Meng,
      T. Nakajima, S. Niu, L. Pollack, M. Rosing, K. Glaesemann, G. Sandrone,
      M. Stave, H. Taylor, G. Thomas, J. H. van Lenthe, A. T. Wong, Z. Zhang.

 Total times  cpu:        9.3s     wall:       16.5s
