8
	Energy:       0.1406307
C         -1.72867        1.15280       -0.05732
C         -0.31613        0.60560        0.05721
H         -1.85537        2.01500        0.63079
H         -2.46138        0.36275        0.21083
H         -1.91950        1.48749       -1.09871
H         -0.12530        0.27091        1.09860
H          0.41658        1.39565       -0.21094
H         -0.18943       -0.25660       -0.63090
